{
  "elements": [
    {
      "atomic_number": 1,
      "symbol": "H",
      "name": "Hydrogen",
      "atomic_mass": 1.008,
      "category": "nonmetal",
      "stability": "stable",
      "ionization_energy": 13.598,
      "density": 0.00008988,
      "melting_point": 14.01,
      "boiling_point": 20.28
    },
    {
      "atomic_number": 2,
      "symbol": "He",
      "name": "Helium",
      "atomic_mass": 4.002602,
      "category": "noble gas",
      "stability": "stable",
      "ionization_energy": 24.587,
      "density": 0.0001785,
      "melting_point": 0.95,
      "boiling_point": 4.22
    },
    {
      "atomic_number": 3,
      "symbol": "Li",
      "name": "Lithium",
      "atomic_mass": 6.94,
      "category": "alkali metal",
      "stability": "stable",
      "ionization_energy": 5.3917,
      "density": 0.534,
      "melting_point": 453.65,
      "boiling_point": 1603
    },
    {
      "atomic_number": 4,
      "symbol": "Be",
      "name": "Beryllium",
      "atomic_mass": 9.0121831,
      "category": "alkaline earth metal",
      "stability": "stable",
      "ionization_energy": 9.3227,
      "density": 1.85,
      "melting_point": 1560,
      "boiling_point": 2742
    },
    {
      "atomic_number": 5,
      "symbol": "B",
      "name": "Boron",
      "atomic_mass": 10.81,
      "category": "metalloid",
      "stability": "stable",
      "ionization_energy": 8.298,
      "density": 2.34,
      "melting_point": 2349,
      "boiling_point": 4200
    },
    {
      "atomic_number": 6,
      "symbol": "C",
      "name": "Carbon",
      "atomic_mass": 12.011,
      "category": "nonmetal",
      "stability": "stable",
      "ionization_energy": 11.26,
      "density": 2.267,
      "melting_point": 3823,
      "boiling_point": 4098
    },
    {
      "atomic_number": 7,
      "symbol": "N",
      "name": "Nitrogen",
      "atomic_mass": 14.007,
      "category": "nonmetal",
      "stability": "stable",
      "ionization_energy": 14.534,
      "density": 0.0012506,
      "melting_point": 63.15,
      "boiling_point": 77.36
    },
    {
      "atomic_number": 8,
      "symbol": "O",
      "name": "Oxygen",
      "atomic_mass": 15.999,
      "category": "nonmetal",
      "stability": "stable",
      "ionization_energy": 13.618,
      "density": 0.001429,
      "melting_point": 54.36,
      "boiling_point": 90.2
    },
    {
      "atomic_number": 9,
      "symbol": "F",
      "name": "Fluorine",
      "atomic_mass": 18.998403163,
      "category": "halogen",
      "stability": "stable",
      "ionization_energy": 17.422,
      "density": 0.001696,
      "melting_point": 53.53,
      "boiling_point": 85.03
    },
    {
      "atomic_number": 10,
      "symbol": "Ne",
      "name": "Neon",
      "atomic_mass": 20.1797,
      "category": "noble gas",
      "stability": "stable",
      "ionization_energy": 21.564,
      "density": 0.0008999,
      "melting_point": 24.56,
      "boiling_point": 27.07
    }
  ]
}
